/*--------------------------------*- C++ -*----------------------------------*\
| =========                 |                                                 |
| \\      /  F ield         | OpenFOAM: The Open Source CFD Toolbox           |
|  \\    /   O peration     | Version:  2.1.1                                 |
|   \\  /    A nd           | Web:      www.OpenFOAM.org                      |
|    \\/     M anipulation  |                                                 |
\*---------------------------------------------------------------------------*/
FoamFile
{
    version     2.0;
    format      ascii;
    class       volScalarField;
    location    "0";
    object      N2;
}
// * * * * * * * * * * * * * * * * * * * * * * * * * * * * * * * * * * * * * //

dimensions      [0 0 0 0 0 0 0];

internalField   uniform 0.7698;

boundaryField
{
    cooler
    {
        type            fixedValue;
        value           uniform 0.7456;//1;
    }
    fuelAir
    {
        type            fixedValue;
        value           uniform 0;
//	type		zeroGradient;
    }
    carrier
    {
        type            fixedValue;
        value           uniform 1;
    }
    walls
    {
        type            zeroGradient;
    }
    midWalls
    {
	type		slip;
    }
    symmetric
    {
        type            symmetryPlane;
    }
    front
    {
        type            empty;
    }
    back
    {
        type            empty;
    }
    outlet
    {
        type            inletOutlet;
        inletValue      uniform 0.77;
        value           uniform 0.77;
    }
}


// ************************************************************************* //
