/*--------------------------------*- C++ -*----------------------------------*\
| =========                 |                                                 |
| \\      /  F ield         | OpenFOAM: The Open Source CFD Toolbox           |
|  \\    /   O peration     | Version:  2.1.1                                 |
|   \\  /    A nd           | Web:      www.OpenFOAM.org                      |
|    \\/     M anipulation  |                                                 |
\*---------------------------------------------------------------------------*/
FoamFile
{
    version     2.0;
    format      ascii;
    class       volVectorField;
    location    "0";
    object      U;
}
// * * * * * * * * * * * * * * * * * * * * * * * * * * * * * * * * * * * * * //

dimensions      [0 1 -1 0 0 0 0];

internalField   uniform (0 0 0);

boundaryField
{
        type            flowRateInletVelocity;
        flowRate        8.9324e-05;
	value uniform (0 0 0); // placeholder*/
    }
    fuelAir
    {
        type            flowRateInletVelocity;
        flowRate        4.8915e-05;
	value uniform (0 0 0); // placeholder*/
    }
    carrier
    {
        type            flowRateInletVelocity;
        flowRate        2.7e-06;
	value uniform (0 0 0); // placeholder*/
    }
    walls
    {
        type            fixedValue;
        value           uniform (0 0 0);
    }
    midWalls
    {
	    type	slip;
    }
    symmetric
    {
        type            symmetryPlane;
    }
    front
    {
        type            empty;
    }
    back
    {
        type            empty;
    }
    outlet
    {
	type		pressureInletOutletVelocity;
	value		uniform (0 0 0);
    }
}


// ************************************************************************* //
