/*--------------------------------*- C++ -*----------------------------------*\
| =========                 |                                                 |
| \\      /  F ield         | OpenFOAM: The Open Source CFD Toolbox           |
|  \\    /   O peration     | Version:  2.1.1                                 |
|   \\  /    A nd           | Web:      www.OpenFOAM.org                      |
|    \\/     M anipulation  |                                                 |
\*---------------------------------------------------------------------------*/
FoamFile
{
    version     2.0;
    format      ascii;
    class       volScalarField;
    location    "0";
    object      ccy;
}
// * * * * * * * * * * * * * * * * * * * * * * * * * * * * * * * * * * * * * //

dimensions      [0 1 0 0 0 0 0];

internalField   nonuniform List<scalar> 
94880
(
0.00288793
0.00287772
0.00286751
0.0028573
0.00284709
0.00283688
0.00282667
0.00281646
0.00280625
0.00279604
0.00278583
0.00277562
0.00276541
0.0027552
0.00274499
0.00273478
0.00272457
0.00271436
0.00270415
0.00269394
0.00268373
0.00267352
0.00266331
0.0026531
0.00313964
0.00312854
0.00311744
0.00310634
0.00309524
0.00308414
0.00307304
0.00306195
0.00305085
0.00303975
0.00302865
0.00301755
0.00300645
0.00299535
0.00298425
0.00297315
0.00296205
0.00295095
0.00293985
0.00292875
0.00291765
0.00290655
0.00289545
0.00288435
0.00336988
0.00335797
0.00334606
0.00333414
0.00332223
0.00331031
0.0032984
0.00328649
0.00327457
0.00326266
0.00325075
0.00323883
0.00322692
0.003215
0.00320309
0.00319118
0.00317926
0.00316735
0.00315544
0.00314352
0.00313161
0.0031197
0.00310778
0.00309587
0.00358048
0.00356782
0.00355517
0.00354251
0.00352985
0.00351719
0.00350453
0.00349187
0.00347922
0.00346656
0.0034539
0.00344124
0.00342858
0.00341592
0.00340327
0.00339061
0.00337795
0.00336529
0.00335263
0.00333997
0.00332732
0.00331466
0.003302
0.00328934
0.00377311
0.00375978
0.00374644
0.0037331
0.00371976
0.00370642
0.00369308
0.00367974
0.0036664
0.00365306
0.00363972
0.00362638
0.00361304
0.0035997
0.00358636
0.00357303
0.00355969
0.00354635
0.00353301
0.00351967
0.00350633
0.00349299
0.00347965
0.00346631
0.00205422
0.00204695
0.00203969
0.00203243
0.00202517
0.0020179
0.00201064
0.00200338
0.00199612
0.00198885
0.00198159
0.00197433
0.00196707
0.0019598
0.00195254
0.00194528
0.00193802
0.00193075
0.00192349
0.00191623
0.00190897
0.00190171
0.00189444
0.00188718
0.00225939
0.00225141
0.00224342
0.00223543
0.00222744
0.00221945
0.00221147
0.00220348
0.00219549
0.0021875
0.00217952
0.00217153
0.00216354
0.00215555
0.00214756
0.00213958
0.00213159
0.0021236
0.00211561
0.00210763
0.00209964
0.00209165
0.00208366
0.00207567
0.00246457
0.00245586
0.00244714
0.00243843
0.00242972
0.00242101
0.00241229
0.00240358
0.00239487
0.00238615
0.00237744
0.00236873
0.00236001
0.0023513
0.00234259
0.00233387
0.00232516
0.00231645
0.00230773
0.00229902
0.00229031
0.00228159
0.00227288
0.00226417
0.00277235
0.00276255
0.00275275
0.00274294
0.00273314
0.00272334
0.00271354
0.00270374
0.00269394
0.00268414
0.00267434
0.00266453
0.00265473
0.00264493
0.00263513
0.00262533
0.00261553
0.00260573
0.00259593
0.00258612
0.00257632
0.00256652
0.00255672
0.00254692
0.000972635
0.000969196
0.000965758
0.000962319
0.00095888
0.000955442
0.000952003
0.000948565
0.000945126
0.000941687
0.000938249
0.00093481
0.000931372
0.000927933
0.000924494
0.000921056
0.000917617
0.000914178
0.00091074
0.000907301
0.000903863
0.000900424
0.000896985
0.000893547
0.00118954
0.00118533
0.00118113
0.00117692
0.00117272
0.00116851
0.0011643
0.0011601
0.00115589
0.00115169
0.00114748
0.00114328
0.00113907
0.00113487
0.00113066
0.00112646
0.00112225
0.00111804
0.00111384
0.00110963
0.00110543
0.00110122
0.00109702
0.00109281
0.00140644
0.00140147
0.00139649
0.00139152
0.00138655
0.00138158
0.00137661
0.00137163
0.00136666
0.00136169
0.00135672
0.00135174
0.00134677
0.0013418
0.00133683
0.00133186
0.00132688
0.00132191
0.00131694
0.00131197
0.00130699
0.00130202
0.00129705
0.00129208
0.00162334
0.0016176
0.00161186
0.00160612
0.00160039
0.00159465
0.00158891
0.00158317
0.00157743
0.00157169
0.00156595
0.00156021
0.00155447
0.00154873
0.00154299
0.00153726
0.00153152
0.00152578
0.00152004
0.0015143
0.00150856
0.00150282
0.00149708
0.00149134
0.00194871
0.00194182
0.00193493
0.00192804
0.00192115
0.00191426
0.00190737
0.00190048
0.00189359
0.0018867
0.00187981
0.00187292
0.00186603
0.00185914
0.00185225
0.00184537
0.00183848
0.00183159
0.0018247
0.00181781
0.00181092
0.00180403
0.00179714
0.00179025
0.000148993
0.000148466
0.00014794
0.000147413
0.000146886
0.000146359
0.000145833
0.000145306
0.000144779
0.000144252
0.000143726
0.000143199
0.000142672
0.000142145
0.000141618
0.000141092
0.000140565
0.000140038
0.000139511
0.000138985
0.000138458
0.000137931
0.000137404
0.000136878
0.000354171
0.000352919
0.000351667
0.000350414
0.000349162
0.00034791
0.000346658
0.000345406
0.000344154
0.000342902
0.00034165
0.000340397
0.000339145
0.000337893
0.000336641
0.000335389
0.000334137
0.000332885
0.000331632
0.00033038
0.000329128
0.000327876
0.000326624
0.000325372
0.000559349
0.000557371
0.000555394
0.000553416
0.000551439
0.000549461
0.000547484
0.000545506
0.000543529
0.000541551
0.000539574
0.000537596
0.000535619
0.000533641
0.000531663
0.000529686
0.000527708
0.000525731
0.000523753
0.000521776
0.000519798
0.000517821
0.000515843
0.000513866
0.000867125
0.00086406
0.000860994
0.000857929
0.000854863
0.000851797
0.000848732
0.000845666
0.000842601
0.000839535
0.00083647
0.000833404
0.000830338
0.000827273
0.000824207
0.000821142
0.000818076
0.000815011
0.000811945
0.000808879
0.000805814
0.000802748
0.000799683
0.000796617
7.32802e-05
7.30211e-05
7.2762e-05
7.2503e-05
7.22439e-05
7.19849e-05
7.17258e-05
7.14667e-05
7.12077e-05
7.09486e-05
7.06895e-05
7.04305e-05
7.01714e-05
6.99124e-05
6.96533e-05
6.93942e-05
6.91352e-05
6.88761e-05
6.8617e-05
6.8358e-05
6.80989e-05
6.78399e-05
6.75808e-05
6.73217e-05
0.00264545
0.00264545
0.00264545
0.00264545
0.00264545
0.00264545
0.00264545
0.00264545
0.00264545
0.00264545
0.00264545
0.00264545
0.00287603
0.00287603
0.00287603
0.00287603
0.00287603
0.00287603
0.00287603
0.00287603
0.00287603
0.00287603
0.00287603
0.00287603
0.00308694
0.00308694
0.00308694
0.00308694
0.00308694
0.00308694
0.00308694
0.00308694
0.00308694
0.00308694
0.00308694
0.00308694
0.00327985
0.00327985
0.00327985
0.00327985
0.00327985
0.00327985
0.00327985
0.00327985
0.00327985
0.00327985
0.00327985
0.00327985
0.00345631
0.00345631
0.00345631
0.00345631
0.00345631
0.00345631
0.00345631
0.00345631
0.00345631
0.00345631
0.00345631
0.00345631
0.00188174
0.00188174
0.00188174
0.00188174
0.00188174
0.00188174
0.00188174
0.00188174
0.00188174
0.00188174
0.00188174
0.00188174
0.00206969
0.00206969
0.00206969
0.00206969
0.00206969
0.00206969
0.00206969
0.00206969
0.00206969
0.00206969
0.00206969
0.00206969
0.00225764
0.00225764
0.00225764
0.00225764
0.00225764
0.00225764
0.00225764
0.00225764
0.00225764
0.00225764
0.00225764
0.00225764
0.00253956
0.00253956
0.00253956
0.00253956
0.00253956
0.00253956
0.00253956
0.00253956
0.00253956
0.00253956
0.00253956
0.00253956
0.000890972
0.000890972
0.000890973
0.000890972
0.000890973
0.000890972
0.000890972
0.000890972
0.000890972
0.000890972
0.000890973
0.000890972
0.00108966
0.00108966
0.00108966
0.00108966
0.00108966
0.00108966
0.00108966
0.00108966
0.00108966
0.00108966
0.00108966
0.00108966
0.00128835
0.00128835
0.00128835
0.00128835
0.00128835
0.00128835
0.00128835
0.00128835
0.00128835
0.00128835
0.00128835
0.00128835
0.00148704
0.00148704
0.00148704
0.00148704
0.00148704
0.00148704
0.00148704
0.00148704
0.00148704
0.00148704
0.00148704
0.00148704
0.00178508
0.00178508
0.00178508
0.00178508
0.00178508
0.00178508
0.00178508
0.00178508
0.00178508
0.00178508
0.00178508
0.00178508
0.000136488
0.000136487
0.000136487
0.000136488
0.000136487
0.000136488
0.000136487
0.000136487
0.000136487
0.000136487
0.000136488
0.000136488
0.000324437
0.000324437
0.000324437
0.000324437
0.000324437
0.000324437
0.000324437
0.000324437
0.000324437
0.000324438
0.000324438
0.000324438
0.000512388
0.000512387
0.000512387
0.000512388
0.000512387
0.000512387
0.000512388
0.000512388
0.000512387
0.000512388
0.000512387
0.000512387
0.000794312
0.000794312
0.000794312
0.000794313
0.000794313
0.000794313
0.000794312
0.000794312
0.000794312
0.000794312
0.000794312
0.000794312
6.7125e-05
6.7125e-05
6.7125e-05
6.7125e-05
6.7125e-05
6.7125e-05
6.7125e-05
6.7125e-05
6.7125e-05
6.7125e-05
6.7125e-05
6.7125e-05
0.00264962
0.00266625
0.00268287
0.0026995
0.00271613
0.00273275
0.00274938
0.00276601
0.00278263
0.00279926
0.00281589
0.00283251
0.00284914
0.00286577
0.00288239
0.00289902
0.00291564
0.00293227
0.0029489
0.00296552
0.00298215
0.00299878
0.0030154
0.00303203
0.00304866
0.00306528
0.00308191
0.00309853
0.00311516
0.00313179
0.00314841
0.00316504
0.00318167
0.00319829
0.00321492
0.00323155
0.00324817
0.0032648
0.00328143
0.00329805
0.00331468
0.0033313
0.00334793
0.00336456
0.00338118
0.00339781
0.00341444
0.00343106
0.00344769
0.00346432
0.00348094
0.00349757
0.0035142
0.00353082
0.00354745
0.00356407
0.0035807
0.00359733
0.00361395
0.00363058
0.00364721
0.00366383
0.00368046
0.00369709
0.00371371
0.00373034
0.00374697
0.00376359
0.00378022
0.00379684
0.00381347
0.0038301
0.00384672
0.00386335
0.00387998
0.0038966
0.00391323
0.00392986
0.00394648
0.00396311
0.00397974
0.00399636
0.00401299
0.00402961
0.00288056
0.00289864
0.00291671
0.00293479
0.00295286
0.00297094
0.00298901
0.00300709
0.00302517
0.00304324
0.00306132
0.00307939
0.00309747
0.00311554
0.00313362
0.00315169
0.00316977
0.00318785
0.00320592
0.003224
0.00324207
0.00326015
0.00327822
0.0032963
0.00331438
0.00333245
0.00335053
0.0033686
0.00338668
0.00340475
0.00342283
0.0034409
0.00345898
0.00347706
0.00349513
0.00351321
0.00353128
0.00354936
0.00356743
0.00358551
0.00360358
0.00362166
0.00363974
0.00365781
0.00367589
0.00369396
0.00371204
0.00373011
0.00374819
0.00376626
0.00378434
0.00380242
0.00382049
0.00383857
0.00385664
0.00387472
0.00389279
0.00391087
0.00392894
0.00394702
0.0039651
0.00398317
0.00400125
0.00401932
0.0040374
0.00405547
0.00407355
0.00409162
0.0041097
0.00412778
0.00414585
0.00416393
0.004182
0.00420008
0.00421815
0.00423623
0.00425431
0.00427238
0.00429046
0.00430853
0.00432661
0.00434468
0.00436276
0.00438083
0.0030918
0.0031112
0.0031306
0.00315
0.0031694
0.00318881
0.00320821
0.00322761
0.00324701
0.00326641
0.00328581
0.00330521
0.00332461
0.00334401
0.00336342
0.00338282
0.00340222
0.00342162
0.00344102
0.00346042
0.00347982
0.00349922
0.00351862
0.00353803
0.00355743
0.00357683
0.00359623
0.00361563
0.00363503
0.00365443
0.00367383
0.00369323
0.00371264
0.00373204
0.00375144
0.00377084
0.00379024
0.00380964
0.00382904
0.00384844
0.00386784
0.00388725
0.00390665
0.00392605
0.00394545
0.00396485
0.00398425
0.00400365
0.00402305
0.00404245
0.00406186
0.00408126
0.00410066
0.00412006
0.00413946
0.00415886
0.00417826
0.00419766
0.00421706
0.00423647
0.00425587
0.00427527
0.00429467
0.00431407
0.00433347
0.00435287
0.00437227
0.00439167
0.00441108
0.00443048
0.00444988
0.00446928
0.00448868
0.00450808
0.00452748
0.00454688
0.00456628
0.00458569
0.00460509
0.00462449
0.00464389
0.00466329
0.00468269
0.00470209
0.00328502
0.00330563
0.00332624
0.00334686
0.00336747
0.00338809
0.0034087
0.00342931
0.00344993
0.00347054
0.00349115
0.00351177
0.00353238
0.00355299
0.00357361
0.00359422
0.00361483
0.00363545
0.00365606
0.00367668
0.00369729
0.0037179
0.00373852
0.00375913
0.00377974
0.00380036
0.00382097
0.00384158
0.0038622
0.00388281
0.00390342
0.00392404
0.00394465
0.00396527
0.00398588
0.00400649
0.00402711
0.00404772
0.00406833
0.00408895
0.00410956
0.00413017
0.00415079
0.0041714
0.00419201
0.00421263
0.00423324
0.00425385
0.00427447
0.00429508
0.0043157
0.00433631
0.00435692
0.00437754
0.00439815
0.00441876
0.00443938
0.00445999
0.0044806
0.00450122
0.00452183
0.00454244
0.00456306
0.00458367
0.00460429
0.0046249
0.00464551
0.00466613
0.00468674
0.00470735
0.00472797
0.00474858
0.00476919
0.00478981
0.00481042
0.00483103
0.00485165
0.00487226
0.00489288
0.00491349
0.0049341
0.00495472
0.00497533
0.00499594
0.00346175
0.00348347
0.0035052
0.00352692
0.00354864
0.00357037
0.00359209
0.00361381
0.00363553
0.00365726
0.00367898
0.0037007
0.00372242
0.00374415
0.00376587
0.00378759
0.00380931
0.00383104
0.00385276
0.00387448
0.0038962
0.00391793
0.00393965
0.00396137
0.00398309
0.00400482
0.00402654
0.00404826
0.00406998
0.00409171
0.00411343
0.00413515
0.00415687
0.0041786
0.00420032
0.00422204
0.00424377
0.00426549
0.00428721
0.00430893
0.00433066
0.00435238
0.0043741
0.00439582
0.00441755
0.00443927
0.00446099
0.00448271
0.00450444
0.00452616
0.00454788
0.0045696
0.00459133
0.00461305
0.00463477
0.00465649
0.00467822
0.00469994
0.00472166
0.00474338
0.00476511
0.00478683
0.00480855
0.00483028
0.004852
0.00487372
0.00489544
0.00491717
0.00493889
0.00496061
0.00498233
0.00500406
0.00502578
0.0050475
0.00506922
0.00509095
0.00511267
0.00513439
0.00515611
0.00517784
0.00519956
0.00522128
0.005243
0.00526473
0.00188471
0.00189653
0.00190836
0.00192019
0.00193201
0.00194384
0.00195566
0.00196749
0.00197932
0.00199114
0.00200297
0.0020148
0.00202662
0.00203845
0.00205028
0.0020621
0.00207393
0.00208576
0.00209758
0.00210941
0.00212124
0.00213306
0.00214489
0.00215672
0.00216854
0.00218037
0.0021922
0.00220402
0.00221585
0.00222768
0.0022395
0.00225133
0.00226315
0.00227498
0.00228681
0.00229863
0.00231046
0.00232229
0.00233411
0.00234594
0.00235777
0.00236959
0.00238142
0.00239325
0.00240507
0.0024169
0.00242873
0.00244055
0.00245238
0.00246421
0.00247603
0.00248786
0.00249969
0.00251151
0.00252334
0.00253517
0.00254699
0.00255882
0.00257065
0.00258247
0.0025943
0.00260612
0.00261795
0.00262978
0.0026416
0.00265343
0.00266526
0.00267708
0.00268891
0.00270074
0.00271256
0.00272439
0.00273622
0.00274804
0.00275987
0.0027717
0.00278352
0.00279535
0.00280718
0.002819
0.00283083
0.00284266
0.00285448
0.00286631
0.00207295
0.00208596
0.00209897
0.00211197
0.00212498
0.00213799
0.002151
0.00216401
0.00217701
0.00219002
0.00220303
0.00221604
0.00222904
0.00224205
0.00225506
0.00226807
0.00228108
0.00229408
0.00230709
0.0023201
0.00233311
0.00234611
0.00235912
0.00237213
0.00238514
0.00239815
0.00241115
0.00242416
0.00243717
0.00245018
0.00246318
0.00247619
0.0024892
0.00250221
0.00251522
0.00252822
0.00254123
0.00255424
0.00256725
0.00258026
0.00259326
0.00260627
0.00261928
0.00263229
0.00264529
0.0026583
0.00267131
0.00268432
0.00269733
0.00271033
0.00272334
0.00273635
0.00274936
0.00276236
0.00277537
0.00278838
0.00280139
0.0028144
0.0028274
0.00284041
0.00285342
0.00286643
0.00287943
0.00289244
0.00290545
0.00291846
0.00293147
0.00294447
0.00295748
0.00297049
0.0029835
0.0029965
0.00300951
0.00302252
0.00303553
0.00304854
0.00306154
0.00307455
0.00308756
0.00310057
0.00311357
0.00312658
0.00313959
0.0031526
0.0022612
0.00227539
0.00228957
0.00230376
0.00231795
0.00233214
0.00234633
0.00236052
0.00237471
0.0023889
0.00240309
0.00241728
0.00243147
0.00244565
0.00245984
0.00247403
0.00248822
0.00250241
0.0025166
0.00253079
0.00254498
0.00255917
0.00257336
0.00258754
0.00260173
0.00261592
0.00263011
0.0026443
0.00265849
0.00267268
0.00268687
0.00270106
0.00271525
0.00272944
0.00274362
0.00275781
0.002772
0.00278619
0.00280038
0.00281457
0.00282876
0.00284295
0.00285714
0.00287133
0.00288551
0.0028997
0.00291389
0.00292808
0.00294227
0.00295646
0.00297065
0.00298484
0.00299903
0.00301322
0.00302741
0.00304159
0.00305578
0.00306997
0.00308416
0.00309835
0.00311254
0.00312673
0.00314092
0.00315511
0.0031693
0.00318348
0.00319767
0.00321186
0.00322605
0.00324024
0.00325443
0.00326862
0.00328281
0.003297
0.00331119
0.00332538
0.00333956
0.00335375
0.00336794
0.00338213
0.00339632
0.00341051
0.0034247
0.00343889
0.00254355
0.00255951
0.00257547
0.00259143
0.00260739
0.00262335
0.00263931
0.00265528
0.00267124
0.0026872
0.00270316
0.00271912
0.00273508
0.00275104
0.002767
0.00278296
0.00279892
0.00281488
0.00283085
0.00284681
0.00286277
0.00287873
0.00289469
0.00291065
0.00292661
0.00294257
0.00295853
0.00297449
0.00299045
0.00300642
0.00302238
0.00303834
0.0030543
0.00307026
0.00308622
0.00310218
0.00311814
0.0031341
0.00315006
0.00316602
0.00318199
0.00319795
0.00321391
0.00322987
0.00324583
0.00326179
0.00327775
0.00329371
0.00330967
0.00332563
0.00334159
0.00335756
0.00337352
0.00338948
0.00340544
0.0034214
0.00343736
0.00345332
0.00346928
0.00348524
0.0035012
0.00351716
0.00353313
0.00354909
0.00356505
0.00358101
0.00359697
0.00361293
0.00362889
0.00364485
0.00366081
0.00367677
0.00369273
0.0037087
0.00372466
0.00374062
0.00375658
0.00377254
0.0037885
0.00380446
0.00382042
0.00383638
0.00385234
0.00386831
0.000892383
0.000897982
0.000903582
0.000909182
0.000914781
0.000920381
0.000925981
0.00093158
0.00093718
0.00094278
0.000948379
0.000953979
0.000959579
0.000965178
0.000970778
0.000976378
0.000981977
0.000987577
0.000993177
0.000998776
0.00100438
0.00100998
0.00101558
0.00102118
0.00102677
0.00103237
0.00103797
0.00104357
0.00104917
0.00105477
0.00106037
0.00106597
0.00107157
0.00107717
0.00108277
0.00108837
0.00109397
0.00109957
0.00110517
0.00111077
0.00111637
0.00112197
0.00112757
0.00113317
0.00113877
0.00114437
0.00114997
0.00115557
0.00116117
0.00116677
0.00117237
0.00117797
0.00118357
0.00118917
0.00119477
0.00120037
0.00120596
0.00121156
0.00121716
0.00122276
0.00122836
0.00123396
0.00123956
0.00124516
0.00125076
0.00125636
0.00126196
0.00126756
0.00127316
0.00127876
0.00128436
0.00128996
0.00129556
0.00130116
0.00130676
0.00131236
0.00131796
0.00132356
0.00132916
0.00133476
0.00134036
0.00134596
0.00135156
0.00135716
0.00109139
0.00109823
0.00110508
0.00111193
0.00111878
0.00112563
0.00113248
0.00113932
0.00114617
0.00115302
0.00115987
0.00116672
0.00117357
0.00118041
0.00118726
0.00119411
0.00120096
0.00120781
0.00121466
0.00122151
0.00122835
0.0012352
0.00124205
0.0012489
0.00125575
0.0012626
0.00126944
0.00127629
0.00128314
0.00128999
0.00129684
0.00130369
0.00131053
0.00131738
0.00132423
0.00133108
0.00133793
0.00134478
0.00135163
0.00135847
0.00136532
0.00137217
0.00137902
0.00138587
0.00139272
0.00139956
0.00140641
0.00141326
0.00142011
0.00142696
0.00143381
0.00144065
0.0014475
0.00145435
0.0014612
0.00146805
0.0014749
0.00148175
0.00148859
0.00149544
0.00150229
0.00150914
0.00151599
0.00152284
0.00152968
0.00153653
0.00154338
0.00155023
0.00155708
0.00156393
0.00157078
0.00157762
0.00158447
0.00159132
0.00159817
0.00160502
0.00161187
0.00161871
0.00162556
0.00163241
0.00163926
0.00164611
0.00165296
0.0016598
0.00129039
0.00129848
0.00130658
0.00131468
0.00132278
0.00133087
0.00133897
0.00134707
0.00135516
0.00136326
0.00137136
0.00137946
0.00138755
0.00139565
0.00140375
0.00141185
0.00141994
0.00142804
0.00143614
0.00144423
0.00145233
0.00146043
0.00146853
0.00147662
0.00148472
0.00149282
0.00150091
0.00150901
0.00151711
0.00152521
0.0015333
0.0015414
0.0015495
0.00155759
0.00156569
0.00157379
0.00158189
0.00158998
0.00159808
0.00160618
0.00161427
0.00162237
0.00163047
0.00163857
0.00164666
0.00165476
0.00166286
0.00167095
0.00167905
0.00168715
0.00169525
0.00170334
0.00171144
0.00171954
0.00172764
0.00173573
0.00174383
0.00175193
0.00176002
0.00176812
0.00177622
0.00178432
0.00179241
0.00180051
0.00180861
0.0018167
0.0018248
0.0018329
0.001841
0.00184909
0.00185719
0.00186529
0.00187338
0.00188148
0.00188958
0.00189768
0.00190577
0.00191387
0.00192197
0.00193006
0.00193816
0.00194626
0.00195436
0.00196245
0.00148939
0.00149874
0.00150808
0.00151743
0.00152677
0.00153612
0.00154547
0.00155481
0.00156416
0.0015735
0.00158285
0.0015922
0.00160154
0.00161089
0.00162023
0.00162958
0.00163892
0.00164827
0.00165762
0.00166696
0.00167631
0.00168565
0.001695
0.00170435
0.00171369
0.00172304
0.00173238
0.00174173
0.00175108
0.00176042
0.00176977
0.00177911
0.00178846
0.00179781
0.00180715
0.0018165
0.00182584
0.00183519
0.00184454
0.00185388
0.00186323
0.00187257
0.00188192
0.00189126
0.00190061
0.00190996
0.0019193
0.00192865
0.00193799
0.00194734
0.00195669
0.00196603
0.00197538
0.00198472
0.00199407
0.00200342
0.00201276
0.00202211
0.00203145
0.0020408
0.00205015
0.00205949
0.00206884
0.00207818
0.00208753
0.00209688
0.00210622
0.00211557
0.00212491
0.00213426
0.0021436
0.00215295
0.0021623
0.00217164
0.00218099
0.00219033
0.00219968
0.00220903
0.00221837
0.00222772
0.00223706
0.00224641
0.00225576
0.0022651
0.00178788
0.0017991
0.00181031
0.00182153
0.00183275
0.00184397
0.00185519
0.00186641
0.00187763
0.00188885
0.00190007
0.00191129
0.00192251
0.00193372
0.00194494
0.00195616
0.00196738
0.0019786
0.00198982
0.00200104
0.00201226
0.00202348
0.0020347
0.00204591
0.00205713
0.00206835
0.00207957
0.00209079
0.00210201
0.00211323
0.00212445
0.00213567
0.00214689
0.00215811
0.00216932
0.00218054
0.00219176
0.00220298
0.0022142
0.00222542
0.00223664
0.00224786
0.00225908
0.0022703
0.00228151
0.00229273
0.00230395
0.00231517
0.00232639
0.00233761
0.00234883
0.00236005
0.00237127
0.00238249
0.00239371
0.00240492
0.00241614
0.00242736
0.00243858
0.0024498
0.00246102
0.00247224
0.00248346
0.00249468
0.0025059
0.00251711
0.00252833
0.00253955
0.00255077
0.00256199
0.00257321
0.00258443
0.00259565
0.00260687
0.00261809
0.00262931
0.00264052
0.00265174
0.00266296
0.00267418
0.0026854
0.00269662
0.00270784
0.00271906
0.00013671
0.000137568
0.000138426
0.000139284
0.000140142
0.000140999
0.000141857
0.000142715
0.000143573
0.000144431
0.000145289
0.000146146
0.000147004
0.000147862
0.00014872
0.000149578
0.000150435
0.000151293
0.000152151
0.000153009
0.000153867
0.000154724
0.000155582
0.00015644
0.000157298
0.000158156
0.000159013
0.000159871
0.000160729
0.000161587
0.000162445
0.000163303
0.00016416
0.000165018
0.000165876
0.000166734
0.000167592
0.000168449
0.000169307
0.000170165
0.000171023
0.000171881
0.000172738
0.000173596
0.000174454
0.000175312
0.00017617
0.000177028
0.000177885
0.000178743
0.000179601
0.000180459
0.000181317
0.000182174
0.000183032
0.00018389
0.000184748
0.000185606
0.000186463
0.000187321
0.000188179
0.000189037
0.000189895
0.000190753
0.00019161
0.000192468
0.000193326
0.000194184
0.000195042
0.000195899
0.000196757
0.000197615
0.000198473
0.000199331
0.000200188
0.000201046
0.000201904
0.000202762
0.00020362
0.000204477
0.000205335
0.000206193
0.000207051
0.000207909
0.000324956
0.000326995
0.000329034
0.000331073
0.000333112
0.000335151
0.00033719
0.000339229
0.000341268
0.000343308
0.000345347
0.000347386
0.000349425
0.000351464
0.000353503
0.000355542
0.000357581
0.00035962
0.000361659
0.000363698
0.000365737
0.000367776
0.000369815
0.000371854
0.000373893
0.000375932
0.000377972
0.000380011
0.00038205
0.000384089
0.000386128
0.000388167
0.000390206
0.000392245
0.000394284
0.000396323
0.000398362
0.000400401
0.00040244
0.000404479
0.000406518
0.000408557
0.000410597
0.000412636
0.000414675
0.000416714
0.000418753
0.000420792
0.000422831
0.00042487
0.000426909
0.000428948
0.000430987
0.000433026
0.000435065
0.000437104
0.000439143
0.000441182
0.000443221
0.000445261
0.0004473
0.000449339
0.000451378
0.000453417
0.000455456
0.000457495
0.000459534
0.000461573
0.000463612
0.000465651
0.00046769
0.000469729
0.000471768
0.000473807
0.000475846
0.000477886
0.000479925
0.000481964
0.000484003
0.000486042
0.000488081
0.00049012
0.000492159
0.000494198
0.000513202
0.000516422
0.000519642
0.000522863
0.000526083
0.000529303
0.000532523
0.000535744
0.000538964
0.000542184
0.000545405
0.000548625
0.000551845
0.000555066
0.000558286
0.000561506
0.000564727
0.000567947
0.000571167
0.000574387
0.000577608
0.000580828
0.000584048
0.000587269
0.000590489
0.000593709
0.00059693
0.00060015
0.00060337
0.000606591
0.000609811
0.000613031
0.000616251
0.000619472
0.000622692
0.000625912
0.000629133
0.000632353
0.000635573
0.000638794
0.000642014
0.000645234
0.000648455
0.000651675
0.000654895
0.000658116
0.000661336
0.000664556
0.000667776
0.000670997
0.000674217
0.000677437
0.000680658
0.000683878
0.000687098
0.000690319
0.000693539
0.000696759
0.00069998
0.0007032
0.00070642
0.00070964
0.000712861
0.000716081
0.000719301
0.000722522
0.000725742
0.000728962
0.000732183
0.000735403
0.000738623
0.000741844
0.000745064
0.000748284
0.000751504
0.000754725
0.000757945
0.000761165
0.000764386
0.000767606
0.000770826
0.000774047
0.000777267
0.000780487
0.000795554
0.000800546
0.000805538
0.00081053
0.000815522
0.000820515
0.000825507
0.000830499
0.000835491
0.000840483
0.000845475
0.000850468
0.00085546
0.000860452
0.000865444
0.000870436
0.000875429
0.000880421
0.000885413
0.000890405
0.000895397
0.000900389
0.000905382
0.000910374
0.000915366
0.000920358
0.00092535
0.000930343
0.000935335
0.000940327
0.000945319
0.000950311
0.000955303
0.000960296
0.000965288
0.00097028
0.000975272
0.000980264
0.000985257
0.000990249
0.000995241
0.00100023
0.00100523
0.00101022
0.00101521
0.0010202
0.00102519
0.00103019
0.00103518
0.00104017
0.00104516
0.00105015
0.00105515
0.00106014
0.00106513
0.00107012
0.00107512
0.00108011
0.0010851
0.00109009
0.00109508
0.00110008
0.00110507
0.00111006
0.00111505
0.00112005
0.00112504
0.00113003
0.00113502
0.00114001
0.00114501
0.00115
0.00115499
0.00115998
0.00116498
0.00116997
0.00117496
0.00117995
0.00118494
0.00118994
0.00119493
0.00119992
0.00120491
0.0012099
6.72267e-05
6.76485e-05
6.80704e-05
6.84923e-05
6.89142e-05
6.9336e-05
6.97579e-05
7.01798e-05
7.06017e-05
7.10235e-05
7.14454e-05
7.18673e-05
7.22892e-05
7.2711e-05
7.31329e-05
7.35548e-05
7.39767e-05
7.43985e-05
7.48204e-05
7.52423e-05
7.56642e-05
7.6086e-05
7.65079e-05
7.69298e-05
7.73517e-05
7.77735e-05
7.81954e-05
7.86173e-05
7.90392e-05
7.9461e-05
7.98829e-05
8.03048e-05
8.07267e-05
8.11485e-05
8.15704e-05
8.19923e-05
8.24141e-05
8.2836e-05
8.32579e-05
8.36798e-05
8.41016e-05
8.45235e-05
8.49454e-05
8.53673e-05
8.57891e-05
8.6211e-05
8.66329e-05
8.70548e-05
8.74766e-05
8.78985e-05
8.83204e-05
8.87423e-05
8.91641e-05
8.9586e-05
9.00079e-05
9.04298e-05
9.08516e-05
9.12735e-05
9.16954e-05
9.21173e-05
9.25391e-05
9.2961e-05
9.33829e-05
9.38048e-05
9.42266e-05
9.46485e-05
9.50704e-05
9.54923e-05
9.59141e-05
9.6336e-05
9.67579e-05
9.71798e-05
9.76016e-05
9.80235e-05
9.84454e-05
9.88673e-05
9.92891e-05
9.9711e-05
0.000100133
0.000100555
0.000100977
0.000101399
0.00010182
0.000102242
0.00404207
0.00404207
0.00404207
0.00404207
0.00404207
0.00404207
0.00404207
0.00404207
0.00404207
0.00404207
0.00404207
0.00404207
0.00404207
0.00404207
0.00404207
0.00404207
0.00404207
0.00404207
0.00404207
0.00404207
0.00404207
0.00404207
0.00404207
0.00404207
0.00404207
0.00404207
0.00404207
0.00404207
0.00404207
0.00404207
0.00404207
0.00404207
0.00404207
0.00404207
0.00404207
0.00404207
0.00404207
0.00404207
0.00404207
0.00404207
0.00404207
0.00404207
0.00404207
0.00404207
0.00404207
0.00404207
0.00404207
0.00404207
0.00404207
0.00404207
0.00404207
0.00404207
0.00404207
0.00404207
0.00404207
0.00404207
0.00404207
0.00404207
0.00404207
0.00404207
0.00404207
0.00404207
0.00404207
0.00404207
0.00404207
0.00404207
0.00404207
0.00404207
0.00404207
0.00404207
0.00404207
0.00404207
0.00404207
0.00404207
0.00404207
0.00404207
0.00404207
0.00404207
0.00404207
0.00404207
0.00404207
0.00404207
0.00404207
0.00404207
0.00404207
0.00404207
0.00404207
0.00404207
0.00404207
0.00404207
0.00404207
0.00404207
0.00404207
0.00404207
0.00404207
0.00404207
0.00404207
0.00404207
0.00404207
0.00404207
0.00404207
0.00404207
0.00404207
0.00404207
0.00404207
0.00404207
0.00404207
0.00404207
0.00404207
0.00404207
0.00404207
0.00404207
0.00404207
0.00404207
0.00404207
0.00404207
0.00404207
0.00404207
0.00404207
0.00404207
0.00404207
0.00404207
0.00404207
0.00404207
0.00404207
0.00404207
0.00404207
0.00404207
0.00404207
0.00404207
0.00404207
0.00404207
0.00404207
0.00404207
0.00404207
0.00404207
0.00404207
0.00404207
0.00404207
0.00404207
0.00404207
0.00404207
0.00404207
0.00404207
0.00404207
0.00404207
0.00404207
0.00404207
0.00404207
0.00404207
0.00404207
0.00404207
0.00404207
0.00404207
0.00404207
0.00404207
0.00404207
0.00404207
0.00404207
0.00404207
0.00404207
0.00404207
0.00404207
0.00404207
0.00404207
0.00404207
0.00404207
0.00404207
0.00404207
0.00404207
0.00404207
0.00404207
0.00404207
0.00404207
0.00404207
0.00404207
0.00404207
0.00404207
0.00404207
0.00404207
0.00413207
0.00413207
0.00413207
0.00413207
0.00413207
0.00413207
0.00413207
0.00413207
0.00413207
0.00413207
0.00413207
0.00413207
0.00413207
0.00413207
0.00413207
0.00413207
0.00413207
0.00413207
0.00413207
0.00413207
0.00413207
0.00413207
0.00413207
0.00413207
0.00413207
0.00413207
0.00413207
0.00413207
0.00413207
0.00413207
0.00413207
0.00413207
0.00413207
0.00413207
0.00413207
0.00413207
0.00413207
0.00413207
0.00413207
0.00413207
0.00413207
0.00413207
0.00413207
0.00413207
0.00413207
0.00413207
0.00413207
0.00413207
0.00413207
0.00413207
0.00413207
0.00413207
0.00413207
0.00413207
0.00413207
0.00413207
0.00413207
0.00413207
0.00413207
0.00413207
0.00413207
0.00413207
0.00413207
0.00413207
0.00413207
0.00413207
0.00413207
0.00413207
0.00413207
0.00413207
0.00413207
0.00413207
0.00413207
0.00413207
0.00413207
0.00413207
0.00413207
0.00413207
0.00413207
0.00413207
0.00413207
0.00413207
0.00413207
0.00413207
0.00413207
0.00413207
0.00413207
0.00413207
0.00413207
0.00413207
0.00413207
0.00413207
0.00413207
0.00413207
0.00413207
0.00413207
0.00413207
0.00413207
0.00413207
0.00413207
0.00413207
0.00413207
0.00413207
0.00413207
0.00413207
0.00413207
0.00413207
0.00413207
0.00413207
0.00413207
0.00413207
0.00413207
0.00413207
0.00413207
0.00413207
0.00413207
0.00413207
0.00413207
0.00413207
0.00413207
0.00439438
0.00439438
0.00439438
0.00439438
0.00439438
0.00439438
0.00439438
0.00439438
0.00439438
0.00439438
0.00439438
0.00439438
0.00439438
0.00439438
0.00439438
0.00439438
0.00439438
0.00439438
0.00439438
0.00439438
0.00439438
0.00439438
0.00439438
0.00439438
0.00439438
0.00439438
0.00439438
0.00439438
0.00439438
0.00439438
0.00439438
0.00439438
0.00439438